Title: ** sch_path: /home/ttuser/tt10-ofc/xschem/ofcpl.sch
Date: Thu Mar  6 16:36:18  2025
Plotname: Operating Point
Flags: real
No. Variables: 1213
No. Points: 1
Variables:
	0	v(x1.d1)	voltage
	1	i(@b.x1.xr1.xsky130_fd_pr__res_xhigh_po_0p35.brbody[i])	current
	2	i(@b.x1.xr1.xsky130_fd_pr__res_xhigh_po_0p35.brend[i])	current
	3	i(@b.x1.xr2.xsky130_fd_pr__res_xhigh_po_0p35.brbody[i])	current
	4	i(@b.x1.xr2.xsky130_fd_pr__res_xhigh_po_0p35.brend[i])	current
	5	i(@b.x1.xr3.xsky130_fd_pr__res_xhigh_po_0p35.brbody[i])	current
	6	i(@b.x1.xr3.xsky130_fd_pr__res_xhigh_po_0p35.brend[i])	current
	7	i(@b.x1.xr5.xsky130_fd_pr__res_xhigh_po_0p35.brbody[i])	current
	8	i(@b.x1.xr5.xsky130_fd_pr__res_xhigh_po_0p35.brend[i])	current
	9	i(@b.x2.x0.xsky130_fd_pr__res_xhigh_po_0p35.brbody[i])	current
	10	i(@b.x2.x0.xsky130_fd_pr__res_xhigh_po_0p35.brend[i])	current
	11	i(@b.x2.x4.xsky130_fd_pr__res_xhigh_po_0p35.brbody[i])	current
	12	i(@b.x2.x4.xsky130_fd_pr__res_xhigh_po_0p35.brend[i])	current
	13	i(@b.x2.x7.xsky130_fd_pr__res_xhigh_po_0p35.brbody[i])	current
	14	i(@b.x2.x7.xsky130_fd_pr__res_xhigh_po_0p35.brend[i])	current
	15	i(@b.x2.x8.xsky130_fd_pr__res_xhigh_po_0p35.brbody[i])	current
	16	i(@b.x2.x8.xsky130_fd_pr__res_xhigh_po_0p35.brend[i])	current
	17	i(@c.x1.xr1.xsky130_fd_pr__res_xhigh_po_0p35.c1[i])	current
	18	i(@c.x1.xr1.xsky130_fd_pr__res_xhigh_po_0p35.c2[i])	current
	19	i(@c.x1.xr2.xsky130_fd_pr__res_xhigh_po_0p35.c1[i])	current
	20	i(@c.x1.xr2.xsky130_fd_pr__res_xhigh_po_0p35.c2[i])	current
	21	i(@c.x1.xr3.xsky130_fd_pr__res_xhigh_po_0p35.c1[i])	current
	22	i(@c.x1.xr3.xsky130_fd_pr__res_xhigh_po_0p35.c2[i])	current
	23	i(@c.x1.xr5.xsky130_fd_pr__res_xhigh_po_0p35.c1[i])	current
	24	i(@c.x1.xr5.xsky130_fd_pr__res_xhigh_po_0p35.c2[i])	current
	25	i(@c.x2.c0[i])	current
	26	i(@c.x2.c1[i])	current
	27	i(@c.x2.c2[i])	current
	28	i(@c.x2.c3[i])	current
	29	i(@c.x2.c4[i])	current
	30	i(@c.x2.c5[i])	current
	31	i(@c.x2.c6[i])	current
	32	i(@c.x2.c7[i])	current
	33	i(@c.x2.c8[i])	current
	34	i(@c.x2.c9[i])	current
	35	i(@c.x2.c10[i])	current
	36	i(@c.x2.c11[i])	current
	37	i(@c.x2.c12[i])	current
	38	i(@c.x2.c13[i])	current
	39	i(@c.x2.c14[i])	current
	40	i(@c.x2.c15[i])	current
	41	i(@c.x2.c16[i])	current
	42	i(@c.x2.c17[i])	current
	43	i(@c.x2.c18[i])	current
	44	i(@c.x2.c19[i])	current
	45	i(@c.x2.c20[i])	current
	46	i(@c.x2.c21[i])	current
	47	i(@c.x2.c22[i])	current
	48	i(@c.x2.c23[i])	current
	49	i(@c.x2.c24[i])	current
	50	i(@c.x2.c25[i])	current
	51	i(@c.x2.c26[i])	current
	52	i(@c.x2.c27[i])	current
	53	i(@c.x2.c28[i])	current
	54	i(@c.x2.c29[i])	current
	55	i(@c.x2.c30[i])	current
	56	i(@c.x2.c31[i])	current
	57	i(@c.x2.c32[i])	current
	58	i(@c.x2.c33[i])	current
	59	i(@c.x2.c34[i])	current
	60	i(@c.x2.c35[i])	current
	61	i(@c.x2.c36[i])	current
	62	i(@c.x2.c37[i])	current
	63	i(@c.x2.c38[i])	current
	64	i(@c.x2.c39[i])	current
	65	i(@c.x2.c40[i])	current
	66	i(@c.x2.c41[i])	current
	67	i(@c.x2.c42[i])	current
	68	i(@c.x2.c43[i])	current
	69	i(@c.x2.c44[i])	current
	70	i(@c.x2.c45[i])	current
	71	i(@c.x2.c46[i])	current
	72	i(@c.x2.c47[i])	current
	73	i(@c.x2.c48[i])	current
	74	i(@c.x2.c49[i])	current
	75	i(@c.x2.c50[i])	current
	76	i(@c.x2.c51[i])	current
	77	i(@c.x2.c52[i])	current
	78	i(@c.x2.c53[i])	current
	79	i(@c.x2.c54[i])	current
	80	i(@c.x2.c55[i])	current
	81	i(@c.x2.c56[i])	current
	82	i(@c.x2.c57[i])	current
	83	i(@c.x2.c58[i])	current
	84	i(@c.x2.c59[i])	current
	85	i(@c.x2.c60[i])	current
	86	i(@c.x2.c61[i])	current
	87	i(@c.x2.c62[i])	current
	88	i(@c.x2.c63[i])	current
	89	i(@c.x2.c64[i])	current
	90	i(@c.x2.c65[i])	current
	91	i(@c.x2.c66[i])	current
	92	i(@c.x2.c67[i])	current
	93	i(@c.x2.c68[i])	current
	94	i(@c.x2.c69[i])	current
	95	i(@c.x2.c70[i])	current
	96	i(@c.x2.c71[i])	current
	97	i(@c.x2.c72[i])	current
	98	i(@c.x2.c73[i])	current
	99	i(@c.x2.c74[i])	current
	100	i(@c.x2.c75[i])	current
	101	i(@c.x2.c76[i])	current
	102	i(@c.x2.c77[i])	current
	103	i(@c.x2.c78[i])	current
	104	i(@c.x2.c79[i])	current
	105	i(@c.x2.c80[i])	current
	106	i(@c.x2.c81[i])	current
	107	i(@c.x2.c82[i])	current
	108	i(@c.x2.c83[i])	current
	109	i(@c.x2.c84[i])	current
	110	i(@c.x2.c85[i])	current
	111	i(@c.x2.c86[i])	current
	112	i(@c.x2.c87[i])	current
	113	i(@c.x2.c88[i])	current
	114	i(@c.x2.c89[i])	current
	115	i(@c.x2.c90[i])	current
	116	i(@c.x2.c91[i])	current
	117	i(@c.x2.c92[i])	current
	118	i(@c.x2.c93[i])	current
	119	i(@c.x2.c94[i])	current
	120	i(@c.x2.c95[i])	current
	121	i(@c.x2.c96[i])	current
	122	i(@c.x2.c97[i])	current
	123	i(@c.x2.c98[i])	current
	124	i(@c.x2.c99[i])	current
	125	i(@c.x2.c100[i])	current
	126	i(@c.x2.c101[i])	current
	127	i(@c.x2.c102[i])	current
	128	i(@c.x2.c103[i])	current
	129	i(@c.x2.c104[i])	current
	130	i(@c.x2.c105[i])	current
	131	i(@c.x2.c106[i])	current
	132	i(@c.x2.c107[i])	current
	133	i(@c.x2.c108[i])	current
	134	i(@c.x2.c109[i])	current
	135	i(@c.x2.c110[i])	current
	136	i(@c.x2.c111[i])	current
	137	i(@c.x2.c112[i])	current
	138	i(@c.x2.c113[i])	current
	139	i(@c.x2.c114[i])	current
	140	i(@c.x2.c115[i])	current
	141	i(@c.x2.c116[i])	current
	142	i(@c.x2.c117[i])	current
	143	i(@c.x2.c118[i])	current
	144	i(@c.x2.c119[i])	current
	145	i(@c.x2.c120[i])	current
	146	i(@c.x2.c121[i])	current
	147	i(@c.x2.c122[i])	current
	148	i(@c.x2.c123[i])	current
	149	i(@c.x2.c124[i])	current
	150	i(@c.x2.c125[i])	current
	151	i(@c.x2.c126[i])	current
	152	i(@c.x2.c127[i])	current
	153	i(@c.x2.c128[i])	current
	154	i(@c.x2.c129[i])	current
	155	i(@c.x2.c130[i])	current
	156	i(@c.x2.c131[i])	current
	157	i(@c.x2.c132[i])	current
	158	i(@c.x2.c133[i])	current
	159	i(@c.x2.c134[i])	current
	160	i(@c.x2.c135[i])	current
	161	i(@c.x2.c136[i])	current
	162	i(@c.x2.c137[i])	current
	163	i(@c.x2.c138[i])	current
	164	i(@c.x2.c139[i])	current
	165	i(@c.x2.c140[i])	current
	166	i(@c.x2.c141[i])	current
	167	i(@c.x2.c142[i])	current
	168	i(@c.x2.c143[i])	current
	169	i(@c.x2.c144[i])	current
	170	i(@c.x2.c145[i])	current
	171	i(@c.x2.c146[i])	current
	172	i(@c.x2.c147[i])	current
	173	i(@c.x2.c148[i])	current
	174	i(@c.x2.c149[i])	current
	175	i(@c.x2.c150[i])	current
	176	i(@c.x2.c151[i])	current
	177	i(@c.x2.c152[i])	current
	178	i(@c.x2.c153[i])	current
	179	i(@c.x2.c154[i])	current
	180	i(@c.x2.c155[i])	current
	181	i(@c.x2.c156[i])	current
	182	i(@c.x2.c157[i])	current
	183	i(@c.x2.c158[i])	current
	184	i(@c.x2.c159[i])	current
	185	i(@c.x2.c160[i])	current
	186	i(@c.x2.c161[i])	current
	187	i(@c.x2.c162[i])	current
	188	i(@c.x2.c163[i])	current
	189	i(@c.x2.c164[i])	current
	190	i(@c.x2.c165[i])	current
	191	i(@c.x2.c166[i])	current
	192	i(@c.x2.c167[i])	current
	193	i(@c.x2.c168[i])	current
	194	i(@c.x2.c169[i])	current
	195	i(@c.x2.c170[i])	current
	196	i(@c.x2.c171[i])	current
	197	i(@c.x2.c172[i])	current
	198	i(@c.x2.c173[i])	current
	199	i(@c.x2.c174[i])	current
	200	i(@c.x2.c175[i])	current
	201	i(@c.x2.c176[i])	current
	202	i(@c.x2.c177[i])	current
	203	i(@c.x2.c178[i])	current
	204	i(@c.x2.c179[i])	current
	205	i(@c.x2.c180[i])	current
	206	i(@c.x2.c181[i])	current
	207	i(@c.x2.c182[i])	current
	208	i(@c.x2.c183[i])	current
	209	i(@c.x2.c184[i])	current
	210	i(@c.x2.c185[i])	current
	211	i(@c.x2.c186[i])	current
	212	i(@c.x2.c187[i])	current
	213	i(@c.x2.c188[i])	current
	214	i(@c.x2.c189[i])	current
	215	i(@c.x2.c190[i])	current
	216	i(@c.x2.c191[i])	current
	217	i(@c.x2.c192[i])	current
	218	i(@c.x2.c193[i])	current
	219	i(@c.x2.c194[i])	current
	220	i(@c.x2.c195[i])	current
	221	i(@c.x2.c196[i])	current
	222	i(@c.x2.c197[i])	current
	223	i(@c.x2.c198[i])	current
	224	i(@c.x2.c199[i])	current
	225	i(@c.x2.c200[i])	current
	226	i(@c.x2.c201[i])	current
	227	i(@c.x2.c202[i])	current
	228	i(@c.x2.c203[i])	current
	229	i(@c.x2.c204[i])	current
	230	i(@c.x2.c205[i])	current
	231	i(@c.x2.c206[i])	current
	232	i(@c.x2.c207[i])	current
	233	i(@c.x2.c208[i])	current
	234	i(@c.x2.c209[i])	current
	235	i(@c.x2.c210[i])	current
	236	i(@c.x2.c211[i])	current
	237	i(@c.x2.c212[i])	current
	238	i(@c.x2.c213[i])	current
	239	i(@c.x2.c214[i])	current
	240	i(@c.x2.c215[i])	current
	241	i(@c.x2.c216[i])	current
	242	i(@c.x2.c217[i])	current
	243	i(@c.x2.c218[i])	current
	244	i(@c.x2.c219[i])	current
	245	i(@c.x2.c220[i])	current
	246	i(@c.x2.c221[i])	current
	247	i(@c.x2.c222[i])	current
	248	i(@c.x2.c223[i])	current
	249	i(@c.x2.c224[i])	current
	250	i(@c.x2.c225[i])	current
	251	i(@c.x2.c226[i])	current
	252	i(@c.x2.x0.xsky130_fd_pr__res_xhigh_po_0p35.c1[i])	current
	253	i(@c.x2.x0.xsky130_fd_pr__res_xhigh_po_0p35.c2[i])	current
	254	i(@c.x2.x4.xsky130_fd_pr__res_xhigh_po_0p35.c1[i])	current
	255	i(@c.x2.x4.xsky130_fd_pr__res_xhigh_po_0p35.c2[i])	current
	256	i(@c.x2.x7.xsky130_fd_pr__res_xhigh_po_0p35.c1[i])	current
	257	i(@c.x2.x7.xsky130_fd_pr__res_xhigh_po_0p35.c2[i])	current
	258	i(@c.x2.x8.xsky130_fd_pr__res_xhigh_po_0p35.c1[i])	current
	259	i(@c.x2.x8.xsky130_fd_pr__res_xhigh_po_0p35.c2[i])	current
	260	i(@c1[i])	current
	261	i(@c2[i])	current
	262	i(@m.x1.xm1.msky130_fd_pr__pfet_01v8[id])	current
	263	i(@m.x1.xm2.msky130_fd_pr__pfet_01v8[id])	current
	264	i(@m.x1.xm3.msky130_fd_pr__nfet_01v8[id])	current
	265	i(@m.x1.xm4.msky130_fd_pr__nfet_01v8[id])	current
	266	i(@m.x1.xm5.msky130_fd_pr__nfet_01v8[id])	current
	267	i(@m.x1.xm6.msky130_fd_pr__nfet_01v8[id])	current
	268	i(@m.x1.xm7.msky130_fd_pr__pfet_01v8[id])	current
	269	i(@m.x1.xm8.msky130_fd_pr__pfet_01v8[id])	current
	270	i(@m.x1.xm9.msky130_fd_pr__pfet_01v8[id])	current
	271	i(@m.x1.xm10.msky130_fd_pr__pfet_01v8[id])	current
	272	i(@m.x1.xm11.msky130_fd_pr__pfet_01v8[id])	current
	273	i(@m.x1.xm12.msky130_fd_pr__pfet_01v8[id])	current
	274	i(@m.x2.x1.msky130_fd_pr__pfet_01v8[id])	current
	275	i(@m.x2.x2.msky130_fd_pr__pfet_01v8[id])	current
	276	i(@m.x2.x3.msky130_fd_pr__pfet_01v8[id])	current
	277	i(@m.x2.x5.msky130_fd_pr__pfet_01v8[id])	current
	278	i(@m.x2.x6.msky130_fd_pr__pfet_01v8[id])	current
	279	i(@m.x2.x9.msky130_fd_pr__nfet_01v8[id])	current
	280	i(@m.x2.x10.msky130_fd_pr__pfet_01v8[id])	current
	281	i(@m.x2.x11.msky130_fd_pr__pfet_01v8[id])	current
	282	i(@m.x2.x12.msky130_fd_pr__pfet_01v8[id])	current
	283	i(@m.x2.x13.msky130_fd_pr__pfet_01v8[id])	current
	284	i(@m.x2.x14.msky130_fd_pr__pfet_01v8[id])	current
	285	i(@m.x2.x15.msky130_fd_pr__pfet_01v8[id])	current
	286	i(@m.x2.x16.msky130_fd_pr__pfet_01v8[id])	current
	287	i(@m.x2.x17.msky130_fd_pr__pfet_01v8[id])	current
	288	i(@m.x2.x18.msky130_fd_pr__pfet_01v8[id])	current
	289	i(@m.x2.x19.msky130_fd_pr__nfet_01v8[id])	current
	290	i(@m.x2.x20.msky130_fd_pr__nfet_01v8[id])	current
	291	i(@m.x2.x21.msky130_fd_pr__pfet_01v8[id])	current
	292	i(@m.x2.x22.msky130_fd_pr__pfet_01v8[id])	current
	293	i(@m.x2.x23.msky130_fd_pr__nfet_01v8[id])	current
	294	i(@r.x2.r0[i])	current
	295	i(@r.x2.r1[i])	current
	296	i(@r.x2.r2[i])	current
	297	i(@r.x2.r3[i])	current
	298	i(@r.x2.r4[i])	current
	299	i(@r.x2.r5[i])	current
	300	i(@r.x2.r6[i])	current
	301	i(@r.x2.r7[i])	current
	302	i(@r.x2.r8[i])	current
	303	i(@r.x2.r9[i])	current
	304	i(@r.x2.r10[i])	current
	305	i(@r.x2.r11[i])	current
	306	i(@r.x2.r12[i])	current
	307	i(@r.x2.r13[i])	current
	308	i(@r.x2.r14[i])	current
	309	i(@r.x2.r15[i])	current
	310	i(@r.x2.r16[i])	current
	311	i(@r.x2.r17[i])	current
	312	i(@r.x2.r18[i])	current
	313	i(@r.x2.r19[i])	current
	314	i(@r.x2.r20[i])	current
	315	i(@r.x2.r21[i])	current
	316	i(@r.x2.r22[i])	current
	317	i(@r.x2.r23[i])	current
	318	i(@r.x2.r24[i])	current
	319	i(@r.x2.r25[i])	current
	320	i(@r.x2.r26[i])	current
	321	i(@r.x2.r27[i])	current
	322	i(@r.x2.r28[i])	current
	323	i(@r.x2.r29[i])	current
	324	i(@r.x2.r30[i])	current
	325	i(@r.x2.r31[i])	current
	326	i(@r.x2.r32[i])	current
	327	i(@r.x2.r33[i])	current
	328	i(@r.x2.r34[i])	current
	329	i(@r.x2.r35[i])	current
	330	i(@r.x2.r36[i])	current
	331	i(@r.x2.r37[i])	current
	332	i(@r.x2.r38[i])	current
	333	i(@r.x2.r39[i])	current
	334	i(@r.x2.r40[i])	current
	335	i(@r.x2.r41[i])	current
	336	i(@r.x2.r42[i])	current
	337	i(@r.x2.r43[i])	current
	338	i(@r.x2.r44[i])	current
	339	i(@r.x2.r45[i])	current
	340	i(@r.x2.r46[i])	current
	341	i(@r.x2.r47[i])	current
	342	i(@r.x2.r48[i])	current
	343	i(@r.x2.r49[i])	current
	344	i(@r.x2.r50[i])	current
	345	i(@r.x2.r51[i])	current
	346	i(@r.x2.r52[i])	current
	347	i(@r.x2.r53[i])	current
	348	i(@r.x2.r54[i])	current
	349	i(@r.x2.r55[i])	current
	350	i(@r.x2.r56[i])	current
	351	i(@r.x2.r57[i])	current
	352	i(@r.x2.r58[i])	current
	353	i(@r.x2.r59[i])	current
	354	i(@r.x2.r60[i])	current
	355	i(@r.x2.r61[i])	current
	356	i(@r.x2.r62[i])	current
	357	i(@r.x2.r63[i])	current
	358	i(@r.x2.r64[i])	current
	359	i(@r.x2.r65[i])	current
	360	i(@r.x2.r66[i])	current
	361	i(@r.x2.r67[i])	current
	362	i(@r.x2.r68[i])	current
	363	i(@r.x2.r69[i])	current
	364	i(@r.x2.r70[i])	current
	365	i(@r.x2.r71[i])	current
	366	i(@r.x2.r72[i])	current
	367	i(@r.x2.r73[i])	current
	368	i(@r.x2.r74[i])	current
	369	i(@r.x2.r75[i])	current
	370	i(@r.x2.r76[i])	current
	371	i(@r.x2.r77[i])	current
	372	i(@r.x2.r78[i])	current
	373	i(@r.x2.r79[i])	current
	374	i(@r.x2.r80[i])	current
	375	i(@r.x2.r81[i])	current
	376	i(@r.x2.r82[i])	current
	377	i(@r.x2.r83[i])	current
	378	i(@r.x2.r84[i])	current
	379	i(@r.x2.r85[i])	current
	380	i(@r.x2.r86[i])	current
	381	i(@r.x2.r87[i])	current
	382	i(@r.x2.r88[i])	current
	383	i(@r.x2.r89[i])	current
	384	i(@r.x2.r90[i])	current
	385	i(@r.x2.r91[i])	current
	386	i(@r.x2.r92[i])	current
	387	i(@r.x2.r93[i])	current
	388	i(@r.x2.r94[i])	current
	389	i(@r.x2.r95[i])	current
	390	i(@r.x2.r96[i])	current
	391	i(@r.x2.r97[i])	current
	392	i(@r.x2.r98[i])	current
	393	i(@r.x2.r99[i])	current
	394	i(@r.x2.r100[i])	current
	395	i(@r.x2.r101[i])	current
	396	i(@r.x2.r102[i])	current
	397	i(@r.x2.r103[i])	current
	398	i(@r.x2.r104[i])	current
	399	i(@r.x2.r105[i])	current
	400	i(@r.x2.r106[i])	current
	401	i(@r.x2.r107[i])	current
	402	i(@r.x2.r108[i])	current
	403	i(@r.x2.r109[i])	current
	404	i(@r.x2.r110[i])	current
	405	i(@r.x2.r111[i])	current
	406	i(@r.x2.r112[i])	current
	407	i(@r.x2.r113[i])	current
	408	i(@r.x2.r114[i])	current
	409	i(@r.x2.r115[i])	current
	410	i(@r.x2.r116[i])	current
	411	i(@r.x2.r117[i])	current
	412	i(@r.x2.r118[i])	current
	413	i(@r.x2.r119[i])	current
	414	i(@r.x2.r120[i])	current
	415	i(@r.x2.r121[i])	current
	416	i(@r.x2.r122[i])	current
	417	i(@r.x2.r123[i])	current
	418	i(@r.x2.r124[i])	current
	419	i(@r.x2.r125[i])	current
	420	i(@r.x2.r126[i])	current
	421	i(@r.x2.r127[i])	current
	422	i(@r.x2.r128[i])	current
	423	i(@r.x2.r129[i])	current
	424	i(@r.x2.r130[i])	current
	425	i(@r.x2.r131[i])	current
	426	i(@r.x2.r132[i])	current
	427	i(@r.x2.r133[i])	current
	428	i(@r.x2.r134[i])	current
	429	i(@r.x2.r135[i])	current
	430	i(@r.x2.r136[i])	current
	431	i(@r.x2.r137[i])	current
	432	i(@r.x2.r138[i])	current
	433	i(@r.x2.r139[i])	current
	434	i(@r.x2.r140[i])	current
	435	i(@r.x2.r141[i])	current
	436	i(@r.x2.r142[i])	current
	437	i(@r.x2.r143[i])	current
	438	i(@r.x2.r144[i])	current
	439	i(@r.x2.r145[i])	current
	440	i(@r.x2.r146[i])	current
	441	i(@r.x2.r147[i])	current
	442	i(@r.x2.r148[i])	current
	443	i(@r.x2.r149[i])	current
	444	i(@r.x2.r150[i])	current
	445	i(@r.x2.r151[i])	current
	446	i(@r.x2.r152[i])	current
	447	i(@r.x2.r153[i])	current
	448	i(@r.x2.r154[i])	current
	449	i(@r.x2.r155[i])	current
	450	i(@r.x2.r156[i])	current
	451	i(@r.x2.r157[i])	current
	452	i(@r.x2.r158[i])	current
	453	i(@r.x2.r159[i])	current
	454	i(@r.x2.r160[i])	current
	455	i(@r.x2.r161[i])	current
	456	i(@r.x2.r162[i])	current
	457	i(@r.x2.r163[i])	current
	458	i(@r.x2.r164[i])	current
	459	i(@r.x2.r165[i])	current
	460	i(@r.x2.r166[i])	current
	461	i(@r.x2.r167[i])	current
	462	i(@r.x2.r168[i])	current
	463	i(@r.x2.r169[i])	current
	464	i(@r.x2.r170[i])	current
	465	i(@r.x2.r171[i])	current
	466	i(@r.x2.r172[i])	current
	467	i(@r.x2.r173[i])	current
	468	i(@r.x2.r174[i])	current
	469	i(@r.x2.r175[i])	current
	470	i(@r.x2.r176[i])	current
	471	i(@r.x2.r177[i])	current
	472	i(@r.x2.r178[i])	current
	473	i(@r.x2.r179[i])	current
	474	i(@r.x2.r180[i])	current
	475	i(@r.x2.r181[i])	current
	476	i(@r.x2.r182[i])	current
	477	i(@r.x2.r183[i])	current
	478	i(@r.x2.r184[i])	current
	479	i(@r.x2.r185[i])	current
	480	i(@r.x2.r186[i])	current
	481	i(@r.x2.r187[i])	current
	482	i(@r.x2.r188[i])	current
	483	i(@r.x2.r189[i])	current
	484	i(@r.x2.r190[i])	current
	485	i(@r.x2.r191[i])	current
	486	i(@r.x2.r192[i])	current
	487	i(@r.x2.r193[i])	current
	488	i(@r.x2.r194[i])	current
	489	i(@r.x2.r195[i])	current
	490	i(@r.x2.r196[i])	current
	491	i(@r.x2.r197[i])	current
	492	i(@r.x2.r198[i])	current
	493	i(@r.x2.r199[i])	current
	494	i(@r.x2.r200[i])	current
	495	i(@r.x2.r201[i])	current
	496	i(@r.x2.r202[i])	current
	497	i(@r.x2.r203[i])	current
	498	i(@r.x2.r204[i])	current
	499	i(@r.x2.r205[i])	current
	500	i(@r.x2.r206[i])	current
	501	i(@r.x2.r207[i])	current
	502	i(@r.x2.r208[i])	current
	503	i(@r.x2.r209[i])	current
	504	i(@r.x2.r210[i])	current
	505	i(@r.x2.r211[i])	current
	506	i(@r.x2.r212[i])	current
	507	i(@r.x2.r213[i])	current
	508	i(@r.x2.r214[i])	current
	509	i(@r.x2.r215[i])	current
	510	i(@r.x2.r216[i])	current
	511	i(@r.x2.r217[i])	current
	512	i(@r.x2.r218[i])	current
	513	i(@r.x2.r219[i])	current
	514	i(@r.x2.r220[i])	current
	515	i(@r.x2.r221[i])	current
	516	i(@r.x2.r222[i])	current
	517	i(@r.x2.r223[i])	current
	518	i(@r.x2.r224[i])	current
	519	i(@r.x2.r225[i])	current
	520	i(@r.x2.r226[i])	current
	521	i(@r.x2.r227[i])	current
	522	i(@r.x2.r228[i])	current
	523	i(@r.x2.r229[i])	current
	524	i(@r.x2.r230[i])	current
	525	i(@r.x2.r231[i])	current
	526	i(@r.x2.r232[i])	current
	527	i(@r.x2.r233[i])	current
	528	i(@r.x2.r234[i])	current
	529	i(@r.x2.r235[i])	current
	530	i(@r.x2.r236[i])	current
	531	i(@r.x2.r237[i])	current
	532	i(@r.x2.r238[i])	current
	533	i(@r.x2.r239[i])	current
	534	i(@r.x2.r240[i])	current
	535	i(@r.x2.r241[i])	current
	536	i(@r.x2.r242[i])	current
	537	i(@r.x2.r243[i])	current
	538	i(@r.x2.r244[i])	current
	539	i(@r.x2.r245[i])	current
	540	i(@r.x2.r246[i])	current
	541	i(@r.x2.r247[i])	current
	542	i(@r.x2.r248[i])	current
	543	i(@r.x2.r249[i])	current
	544	i(@r.x2.r250[i])	current
	545	i(@r.x2.r251[i])	current
	546	i(@r.x2.r252[i])	current
	547	i(@r.x2.r253[i])	current
	548	i(@r.x2.r254[i])	current
	549	i(@r.x2.r255[i])	current
	550	i(@r.x2.r256[i])	current
	551	i(@r.x2.r257[i])	current
	552	i(@r.x2.r258[i])	current
	553	i(@r.x2.r259[i])	current
	554	i(@r.x2.r260[i])	current
	555	i(@r.x2.r261[i])	current
	556	i(@r.x2.r262[i])	current
	557	i(@r.x2.r263[i])	current
	558	i(@r.x2.r264[i])	current
	559	i(@r.x2.r265[i])	current
	560	i(@r.x2.r266[i])	current
	561	i(@r.x2.r267[i])	current
	562	i(@r.x2.r268[i])	current
	563	i(@r.x2.r269[i])	current
	564	i(@r.x2.r270[i])	current
	565	i(@r.x2.r271[i])	current
	566	i(@r.x2.r272[i])	current
	567	i(@r.x2.r273[i])	current
	568	i(@r.x2.r274[i])	current
	569	i(@r.x2.r275[i])	current
	570	i(@r.x2.r276[i])	current
	571	i(@r.x2.r277[i])	current
	572	i(@r.x2.r278[i])	current
	573	i(@r.x2.r279[i])	current
	574	i(@r.x2.r280[i])	current
	575	i(@r.x2.r281[i])	current
	576	i(@r.x2.r282[i])	current
	577	i(@r.x2.r283[i])	current
	578	i(@r.x2.r284[i])	current
	579	i(@r.x2.r285[i])	current
	580	i(@r.x2.r286[i])	current
	581	i(@r.x2.r287[i])	current
	582	i(@r.x2.r288[i])	current
	583	i(@r.x2.r289[i])	current
	584	i(@r.x2.r290[i])	current
	585	i(@r.x2.r291[i])	current
	586	i(@r.x2.r292[i])	current
	587	i(@r.x2.r293[i])	current
	588	i(@r.x2.r294[i])	current
	589	i(@r.x2.r295[i])	current
	590	i(@r.x2.r296[i])	current
	591	i(@r.x2.r297[i])	current
	592	i(@r.x2.r298[i])	current
	593	i(@r.x2.r299[i])	current
	594	i(@r.x2.r300[i])	current
	595	i(@r.x2.r301[i])	current
	596	i(@r.x2.r302[i])	current
	597	i(@r.x2.r303[i])	current
	598	i(@r.x2.r304[i])	current
	599	i(@r.x2.r305[i])	current
	600	i(@r.x2.r306[i])	current
	601	i(@r.x2.r307[i])	current
	602	i(@r.x2.r308[i])	current
	603	i(@r.x2.r309[i])	current
	604	i(@r.x2.r310[i])	current
	605	i(@r.x2.r311[i])	current
	606	i(@r.x2.r312[i])	current
	607	i(@r.x2.r313[i])	current
	608	i(@r.x2.r314[i])	current
	609	i(@r.x2.r315[i])	current
	610	i(@r.x2.r316[i])	current
	611	i(@r.x2.r317[i])	current
	612	i(@r.x2.r318[i])	current
	613	i(@r.x2.r319[i])	current
	614	i(@r.x2.r320[i])	current
	615	i(@r.x2.r321[i])	current
	616	i(@r.x2.r322[i])	current
	617	i(@r.x2.r323[i])	current
	618	i(@r.x2.r324[i])	current
	619	i(@r.x2.r325[i])	current
	620	i(@r.x2.r326[i])	current
	621	i(@r.x2.r327[i])	current
	622	i(@r.x2.r328[i])	current
	623	i(@r.x2.r329[i])	current
	624	i(@r.x2.r330[i])	current
	625	i(@r.x2.r331[i])	current
	626	i(@r.x2.r332[i])	current
	627	i(@r.x2.r333[i])	current
	628	i(@r.x2.r334[i])	current
	629	i(@r.x2.r335[i])	current
	630	i(@r.x2.r336[i])	current
	631	i(@r.x2.r337[i])	current
	632	i(@r.x2.r338[i])	current
	633	i(@r.x2.r339[i])	current
	634	i(@r.x2.r340[i])	current
	635	i(@r.x2.r341[i])	current
	636	i(@r.x2.r342[i])	current
	637	i(@r.x2.r343[i])	current
	638	i(@r.x2.r344[i])	current
	639	i(@r.x2.r345[i])	current
	640	i(@r.x2.r346[i])	current
	641	i(@r.x2.r347[i])	current
	642	i(@r.x2.r348[i])	current
	643	i(@r.x2.r349[i])	current
	644	i(@r.x2.r350[i])	current
	645	i(@r.x2.r351[i])	current
	646	i(@r.x2.r352[i])	current
	647	i(@r.x2.r353[i])	current
	648	i(@r.x2.r354[i])	current
	649	i(@r.x2.r355[i])	current
	650	i(@r.x2.r356[i])	current
	651	i(@r.x2.r357[i])	current
	652	i(@r.x2.r358[i])	current
	653	i(@r.x2.r359[i])	current
	654	i(@r.x2.r360[i])	current
	655	i(@r.x2.r361[i])	current
	656	i(@r.x2.r362[i])	current
	657	i(@r.x2.r363[i])	current
	658	i(@r.x2.r364[i])	current
	659	i(@r.x2.r365[i])	current
	660	i(@r.x2.r366[i])	current
	661	i(@r.x2.r367[i])	current
	662	i(@r.x2.r368[i])	current
	663	i(@r.x2.r369[i])	current
	664	i(@r.x2.r370[i])	current
	665	i(@r.x2.r371[i])	current
	666	i(@r.x2.r372[i])	current
	667	i(@r.x2.r373[i])	current
	668	i(@r.x2.r374[i])	current
	669	i(@r.x2.r375[i])	current
	670	i(@r.x2.r376[i])	current
	671	i(@r.x2.r377[i])	current
	672	i(@r.x2.r378[i])	current
	673	i(@r.x2.r379[i])	current
	674	i(@r.x2.r380[i])	current
	675	i(@r.x2.r381[i])	current
	676	i(@r.x2.r382[i])	current
	677	i(@r.x2.r383[i])	current
	678	i(@r.x2.r384[i])	current
	679	i(@r.x2.r385[i])	current
	680	i(@r.x2.r386[i])	current
	681	i(@r.x2.r387[i])	current
	682	i(@r.x2.r388[i])	current
	683	i(@r.x2.r389[i])	current
	684	i(@r.x2.r390[i])	current
	685	i(@r.x2.r391[i])	current
	686	i(@r.x2.r392[i])	current
	687	i(@r.x2.r393[i])	current
	688	i(@r.x2.r394[i])	current
	689	i(@r.x2.r395[i])	current
	690	i(@r.x2.r396[i])	current
	691	i(@r.x2.r397[i])	current
	692	i(@r.x2.r398[i])	current
	693	i(@r.x2.r399[i])	current
	694	i(@r.x2.r400[i])	current
	695	i(@r.x2.r401[i])	current
	696	i(@r.x2.r402[i])	current
	697	i(@r.x2.r403[i])	current
	698	i(@r.x2.r404[i])	current
	699	i(@r.x2.r405[i])	current
	700	i(@r.x2.r406[i])	current
	701	i(@r.x2.r407[i])	current
	702	i(@r.x2.r408[i])	current
	703	i(@r.x2.r409[i])	current
	704	i(@r.x2.r410[i])	current
	705	i(@r.x2.r411[i])	current
	706	i(@r.x2.r412[i])	current
	707	i(@r.x2.r413[i])	current
	708	i(@r.x2.r414[i])	current
	709	i(@r.x2.r415[i])	current
	710	i(@r.x2.r416[i])	current
	711	i(@r.x2.r417[i])	current
	712	i(@r.x2.r418[i])	current
	713	i(@r.x2.r419[i])	current
	714	i(@r.x2.r420[i])	current
	715	i(@r.x2.r421[i])	current
	716	i(@r.x2.r422[i])	current
	717	i(@r.x2.r423[i])	current
	718	i(@r.x2.r424[i])	current
	719	i(@r.x2.r425[i])	current
	720	i(@r.x2.r426[i])	current
	721	i(@r.x2.r427[i])	current
	722	i(@r.x2.r428[i])	current
	723	i(@r.x2.r429[i])	current
	724	i(@r.x2.r430[i])	current
	725	i(@r.x2.r431[i])	current
	726	i(@r.x2.r432[i])	current
	727	i(@r.x2.r433[i])	current
	728	i(@r.x2.r434[i])	current
	729	i(@r.x2.r435[i])	current
	730	i(@r.x2.r436[i])	current
	731	i(@r.x2.r437[i])	current
	732	i(@r.x2.r438[i])	current
	733	i(@r.x2.r439[i])	current
	734	i(@r.x2.r440[i])	current
	735	i(@r.x2.r441[i])	current
	736	i(@r.x2.r442[i])	current
	737	i(@r.x2.r443[i])	current
	738	i(@r.x2.r444[i])	current
	739	i(@r.x2.r445[i])	current
	740	i(@r.x2.r446[i])	current
	741	i(@r.x2.r447[i])	current
	742	i(@r.x2.r448[i])	current
	743	i(@r.x2.r449[i])	current
	744	i(@r.x2.r450[i])	current
	745	i(@r.x2.r451[i])	current
	746	i(@r.x2.r452[i])	current
	747	i(@r.x2.r453[i])	current
	748	i(@r.x2.r454[i])	current
	749	i(@r.x2.r455[i])	current
	750	i(@r.x2.r456[i])	current
	751	i(@r.x2.r457[i])	current
	752	i(@r.x2.r458[i])	current
	753	i(@r.x2.r459[i])	current
	754	i(@r.x2.r460[i])	current
	755	i(@r.x2.r461[i])	current
	756	i(@r.x2.r462[i])	current
	757	i(@r1[i])	current
	758	i(@r2[i])	current
	759	v(in+)	voltage
	760	v(in-)	voltage
	761	v(m.x1.xm1.msky130_fd_pr__pfet_01v8#body)	voltage
	762	v(m.x1.xm1.msky130_fd_pr__pfet_01v8#dbody)	voltage
	763	v(m.x1.xm1.msky130_fd_pr__pfet_01v8#sbody)	voltage
	764	v(m.x1.xm2.msky130_fd_pr__pfet_01v8#body)	voltage
	765	v(m.x1.xm2.msky130_fd_pr__pfet_01v8#dbody)	voltage
	766	v(m.x1.xm2.msky130_fd_pr__pfet_01v8#sbody)	voltage
	767	v(m.x1.xm3.msky130_fd_pr__nfet_01v8#body)	voltage
	768	v(m.x1.xm3.msky130_fd_pr__nfet_01v8#dbody)	voltage
	769	v(m.x1.xm3.msky130_fd_pr__nfet_01v8#sbody)	voltage
	770	v(m.x1.xm4.msky130_fd_pr__nfet_01v8#body)	voltage
	771	v(m.x1.xm4.msky130_fd_pr__nfet_01v8#dbody)	voltage
	772	v(m.x1.xm4.msky130_fd_pr__nfet_01v8#sbody)	voltage
	773	v(m.x1.xm5.msky130_fd_pr__nfet_01v8#body)	voltage
	774	v(m.x1.xm5.msky130_fd_pr__nfet_01v8#dbody)	voltage
	775	v(m.x1.xm5.msky130_fd_pr__nfet_01v8#sbody)	voltage
	776	v(m.x1.xm6.msky130_fd_pr__nfet_01v8#body)	voltage
	777	v(m.x1.xm6.msky130_fd_pr__nfet_01v8#dbody)	voltage
	778	v(m.x1.xm6.msky130_fd_pr__nfet_01v8#sbody)	voltage
	779	v(m.x1.xm7.msky130_fd_pr__pfet_01v8#body)	voltage
	780	v(m.x1.xm7.msky130_fd_pr__pfet_01v8#dbody)	voltage
	781	v(m.x1.xm7.msky130_fd_pr__pfet_01v8#sbody)	voltage
	782	v(m.x1.xm8.msky130_fd_pr__pfet_01v8#body)	voltage
	783	v(m.x1.xm8.msky130_fd_pr__pfet_01v8#dbody)	voltage
	784	v(m.x1.xm8.msky130_fd_pr__pfet_01v8#sbody)	voltage
	785	v(m.x1.xm9.msky130_fd_pr__pfet_01v8#body)	voltage
	786	v(m.x1.xm9.msky130_fd_pr__pfet_01v8#dbody)	voltage
	787	v(m.x1.xm9.msky130_fd_pr__pfet_01v8#sbody)	voltage
	788	v(m.x1.xm10.msky130_fd_pr__pfet_01v8#body)	voltage
	789	v(m.x1.xm10.msky130_fd_pr__pfet_01v8#dbody)	voltage
	790	v(m.x1.xm10.msky130_fd_pr__pfet_01v8#sbody)	voltage
	791	v(m.x1.xm11.msky130_fd_pr__pfet_01v8#body)	voltage
	792	v(m.x1.xm11.msky130_fd_pr__pfet_01v8#dbody)	voltage
	793	v(m.x1.xm11.msky130_fd_pr__pfet_01v8#sbody)	voltage
	794	v(m.x1.xm12.msky130_fd_pr__pfet_01v8#body)	voltage
	795	v(m.x1.xm12.msky130_fd_pr__pfet_01v8#dbody)	voltage
	796	v(m.x1.xm12.msky130_fd_pr__pfet_01v8#sbody)	voltage
	797	v(m.x2.x1.msky130_fd_pr__pfet_01v8#body)	voltage
	798	v(m.x2.x1.msky130_fd_pr__pfet_01v8#dbody)	voltage
	799	v(m.x2.x1.msky130_fd_pr__pfet_01v8#sbody)	voltage
	800	v(m.x2.x2.msky130_fd_pr__pfet_01v8#body)	voltage
	801	v(m.x2.x2.msky130_fd_pr__pfet_01v8#dbody)	voltage
	802	v(m.x2.x2.msky130_fd_pr__pfet_01v8#sbody)	voltage
	803	v(m.x2.x3.msky130_fd_pr__pfet_01v8#body)	voltage
	804	v(m.x2.x3.msky130_fd_pr__pfet_01v8#dbody)	voltage
	805	v(m.x2.x3.msky130_fd_pr__pfet_01v8#sbody)	voltage
	806	v(m.x2.x5.msky130_fd_pr__pfet_01v8#body)	voltage
	807	v(m.x2.x5.msky130_fd_pr__pfet_01v8#dbody)	voltage
	808	v(m.x2.x5.msky130_fd_pr__pfet_01v8#sbody)	voltage
	809	v(m.x2.x6.msky130_fd_pr__pfet_01v8#body)	voltage
	810	v(m.x2.x6.msky130_fd_pr__pfet_01v8#dbody)	voltage
	811	v(m.x2.x6.msky130_fd_pr__pfet_01v8#sbody)	voltage
	812	v(m.x2.x9.msky130_fd_pr__nfet_01v8#body)	voltage
	813	v(m.x2.x9.msky130_fd_pr__nfet_01v8#dbody)	voltage
	814	v(m.x2.x9.msky130_fd_pr__nfet_01v8#sbody)	voltage
	815	v(m.x2.x10.msky130_fd_pr__pfet_01v8#body)	voltage
	816	v(m.x2.x10.msky130_fd_pr__pfet_01v8#dbody)	voltage
	817	v(m.x2.x10.msky130_fd_pr__pfet_01v8#sbody)	voltage
	818	v(m.x2.x11.msky130_fd_pr__pfet_01v8#body)	voltage
	819	v(m.x2.x11.msky130_fd_pr__pfet_01v8#dbody)	voltage
	820	v(m.x2.x11.msky130_fd_pr__pfet_01v8#sbody)	voltage
	821	v(m.x2.x12.msky130_fd_pr__pfet_01v8#body)	voltage
	822	v(m.x2.x12.msky130_fd_pr__pfet_01v8#dbody)	voltage
	823	v(m.x2.x12.msky130_fd_pr__pfet_01v8#sbody)	voltage
	824	v(m.x2.x13.msky130_fd_pr__pfet_01v8#body)	voltage
	825	v(m.x2.x13.msky130_fd_pr__pfet_01v8#dbody)	voltage
	826	v(m.x2.x13.msky130_fd_pr__pfet_01v8#sbody)	voltage
	827	v(m.x2.x14.msky130_fd_pr__pfet_01v8#body)	voltage
	828	v(m.x2.x14.msky130_fd_pr__pfet_01v8#dbody)	voltage
	829	v(m.x2.x14.msky130_fd_pr__pfet_01v8#sbody)	voltage
	830	v(m.x2.x15.msky130_fd_pr__pfet_01v8#body)	voltage
	831	v(m.x2.x15.msky130_fd_pr__pfet_01v8#dbody)	voltage
	832	v(m.x2.x15.msky130_fd_pr__pfet_01v8#sbody)	voltage
	833	v(m.x2.x16.msky130_fd_pr__pfet_01v8#body)	voltage
	834	v(m.x2.x16.msky130_fd_pr__pfet_01v8#dbody)	voltage
	835	v(m.x2.x16.msky130_fd_pr__pfet_01v8#sbody)	voltage
	836	v(m.x2.x17.msky130_fd_pr__pfet_01v8#body)	voltage
	837	v(m.x2.x17.msky130_fd_pr__pfet_01v8#dbody)	voltage
	838	v(m.x2.x17.msky130_fd_pr__pfet_01v8#sbody)	voltage
	839	v(m.x2.x18.msky130_fd_pr__pfet_01v8#body)	voltage
	840	v(m.x2.x18.msky130_fd_pr__pfet_01v8#dbody)	voltage
	841	v(m.x2.x18.msky130_fd_pr__pfet_01v8#sbody)	voltage
	842	v(m.x2.x19.msky130_fd_pr__nfet_01v8#body)	voltage
	843	v(m.x2.x19.msky130_fd_pr__nfet_01v8#dbody)	voltage
	844	v(m.x2.x19.msky130_fd_pr__nfet_01v8#sbody)	voltage
	845	v(m.x2.x20.msky130_fd_pr__nfet_01v8#body)	voltage
	846	v(m.x2.x20.msky130_fd_pr__nfet_01v8#dbody)	voltage
	847	v(m.x2.x20.msky130_fd_pr__nfet_01v8#sbody)	voltage
	848	v(m.x2.x21.msky130_fd_pr__pfet_01v8#body)	voltage
	849	v(m.x2.x21.msky130_fd_pr__pfet_01v8#dbody)	voltage
	850	v(m.x2.x21.msky130_fd_pr__pfet_01v8#sbody)	voltage
	851	v(m.x2.x22.msky130_fd_pr__pfet_01v8#body)	voltage
	852	v(m.x2.x22.msky130_fd_pr__pfet_01v8#dbody)	voltage
	853	v(m.x2.x22.msky130_fd_pr__pfet_01v8#sbody)	voltage
	854	v(m.x2.x23.msky130_fd_pr__nfet_01v8#body)	voltage
	855	v(m.x2.x23.msky130_fd_pr__nfet_01v8#dbody)	voltage
	856	v(m.x2.x23.msky130_fd_pr__nfet_01v8#sbody)	voltage
	857	v(net2)	voltage
	858	v(net3)	voltage
	859	v(out)	voltage
	860	v(outp)	voltage